lammps cell input
684 atoms
3 atom types
2 bond types
10 extra bond per atom
200 extra special per atom
0 20 xlo xhi
0 20 ylo yhi
0 80 zlo zhi

Masses

1 4.18879
2 4.18879
3 4.18879

Bond Coeffs

1 0.0028125 2
2 0.028125 1.5
 
Atoms

1 1 3 7 1 40
2 2 3 9 1 40
3 3 3 11 1 40
4 4 3 13 1 40
5 5 3 7 1 42
6 6 3 9 1 42
7 7 3 11 1 42
8 8 3 13 1 42
9 9 3 7 1 44
10 10 3 9 1 44
11 11 3 11 1 44
12 12 3 13 1 44
13 13 3 7 1 46
14 14 3 9 1 46
15 15 3 11 1 46
16 16 3 13 1 46
17 17 3 7 1 48
18 18 3 9 1 48
19 19 3 11 1 48
20 20 3 13 1 48
21 21 3 7 1 50
22 22 3 9 1 50
23 23 3 11 1 50
24 24 3 13 1 50
25 25 3 7 1 52
26 26 3 9 1 52
27 27 3 11 1 52
28 28 3 13 1 52
29 29 3 7 1 54
30 30 3 9 1 54
31 31 3 11 1 54
32 32 3 13 1 54
33 33 1 4 1 4
34 34 1 6 1 4
35 35 1 10 1 4
36 36 1 12 1 4
37 37 1 18 1 4
38 38 1 4 1 6
39 39 1 6 1 6
40 40 1 10 1 6
41 41 1 12 1 6
42 42 1 14 1 6
43 43 1 16 1 6
44 44 1 4 1 8
45 45 1 6 1 8
46 46 1 8 1 8
47 47 1 10 1 8
48 48 1 12 1 8
49 49 1 16 1 8
50 50 1 18 1 8
51 51 1 4 1 10
52 52 1 6 1 10
53 53 1 8 1 10
54 54 1 10 1 10
55 55 1 12 1 10
56 56 1 16 1 10
57 57 1 10 1 12
58 58 1 12 1 12
59 59 1 14 1 12
60 60 1 16 1 12
61 61 1 4 1 14
62 62 1 6 1 14
63 63 1 8 1 14
64 64 1 10 1 14
65 65 1 14 1 14
66 66 1 16 1 14
67 67 1 18 1 14
68 68 1 4 1 16
69 69 1 6 1 16
70 70 1 10 1 16
71 71 1 12 1 16
72 72 1 18 1 16
73 73 1 4 1 18
74 74 1 6 1 18
75 75 1 8 1 18
76 76 1 12 1 18
77 77 1 16 1 18
78 78 1 18 1 18
79 79 1 4 1 20
80 80 1 6 1 20
81 81 1 8 1 20
82 82 1 16 1 20
83 83 1 4 1 22
84 84 1 8 1 22
85 85 1 10 1 22
86 86 1 16 1 22
87 87 1 18 1 22
88 88 1 4 1 24
89 89 1 6 1 24
90 90 1 8 1 24
91 91 1 10 1 24
92 92 1 12 1 24
93 93 1 16 1 24
94 94 1 18 1 24
95 95 1 4 1 26
96 96 1 6 1 26
97 97 1 12 1 26
98 98 1 14 1 26
99 99 1 16 1 26
100 100 1 4 1 28
101 101 1 6 1 28
102 102 1 10 1 28
103 103 1 14 1 28
104 104 1 16 1 28
105 105 1 18 1 28
106 106 1 6 1 30
107 107 1 10 1 30
108 108 1 12 1 30
109 109 1 14 1 30
110 110 1 16 1 30
111 111 1 6 1 32
112 112 1 10 1 32
113 113 1 12 1 32
114 114 1 14 1 32
115 115 1 18 1 32
116 116 1 6 3 4
117 117 1 10 3 4
118 118 1 12 3 4
119 119 1 14 3 4
120 120 1 18 3 4
121 121 1 6 3 6
122 122 1 8 3 6
123 123 1 10 3 6
124 124 1 4 3 8
125 125 1 6 3 8
126 126 1 8 3 8
127 127 1 12 3 8
128 128 1 14 3 8
129 129 1 16 3 8
130 130 1 18 3 8
131 131 1 4 3 10
132 132 1 16 3 10
133 133 1 4 3 12
134 134 1 6 3 12
135 135 1 8 3 12
136 136 1 10 3 12
137 137 1 12 3 12
138 138 1 14 3 12
139 139 1 16 3 12
140 140 1 4 3 14
141 141 1 6 3 14
142 142 1 10 3 14
143 143 1 16 3 14
144 144 1 18 3 14
145 145 1 4 3 16
146 146 1 10 3 16
147 147 1 12 3 16
148 148 1 4 3 18
149 149 1 6 3 18
150 150 1 8 3 18
151 151 1 10 3 18
152 152 1 12 3 18
153 153 1 16 3 18
154 154 1 4 3 20
155 155 1 8 3 20
156 156 1 10 3 20
157 157 1 12 3 20
158 158 1 16 3 20
159 159 1 18 3 20
160 160 1 4 3 22
161 161 1 6 3 22
162 162 1 8 3 22
163 163 1 10 3 22
164 164 1 12 3 22
165 165 1 14 3 22
166 166 1 16 3 22
167 167 1 18 3 22
168 168 1 4 3 24
169 169 1 6 3 24
170 170 1 8 3 24
171 171 1 10 3 24
172 172 1 12 3 24
173 173 1 14 3 24
174 174 1 16 3 24
175 175 1 18 3 24
176 176 1 4 3 26
177 177 1 6 3 26
178 178 1 10 3 26
179 179 1 12 3 26
180 180 1 16 3 26
181 181 1 10 3 28
182 182 1 12 3 28
183 183 1 14 3 28
184 184 1 16 3 28
185 185 1 4 3 30
186 186 1 6 3 30
187 187 1 8 3 30
188 188 1 14 3 30
189 189 1 16 3 30
190 190 1 4 3 32
191 191 1 6 3 32
192 192 1 14 3 32
193 193 1 16 3 32
194 194 1 18 3 32
195 195 1 8 5 4
196 196 1 12 5 4
197 197 1 14 5 4
198 198 1 16 5 4
199 199 1 18 5 4
200 200 1 6 5 6
201 201 1 8 5 6
202 202 1 10 5 6
203 203 1 12 5 6
204 204 1 16 5 6
205 205 1 18 5 6
206 206 1 4 5 8
207 207 1 6 5 8
208 208 1 8 5 8
209 209 1 10 5 8
210 210 1 14 5 8
211 211 1 16 5 8
212 212 1 18 5 8
213 213 1 8 5 10
214 214 1 10 5 10
215 215 1 14 5 10
216 216 1 18 5 10
217 217 1 4 5 12
218 218 1 6 5 12
219 219 1 8 5 12
220 220 1 10 5 12
221 221 1 12 5 12
222 222 1 14 5 12
223 223 1 16 5 12
224 224 1 6 5 14
225 225 1 8 5 14
226 226 1 10 5 14
227 227 1 12 5 14
228 228 1 14 5 14
229 229 1 16 5 14
230 230 1 18 5 14
231 231 1 4 5 16
232 232 1 6 5 16
233 233 1 12 5 16
234 234 1 16 5 16
235 235 1 4 5 18
236 236 1 6 5 18
237 237 1 8 5 18
238 238 1 10 5 18
239 239 1 14 5 18
240 240 1 4 5 20
241 241 1 8 5 20
242 242 1 10 5 20
243 243 1 12 5 20
244 244 1 16 5 20
245 245 1 18 5 20
246 246 1 4 5 22
247 247 1 6 5 22
248 248 1 8 5 22
249 249 1 10 5 22
250 250 1 12 5 22
251 251 1 14 5 22
252 252 1 6 5 24
253 253 1 8 5 24
254 254 1 10 5 24
255 255 1 14 5 24
256 256 1 16 5 24
257 257 1 18 5 24
258 258 1 4 5 26
259 259 1 6 5 26
260 260 1 10 5 26
261 261 1 14 5 26
262 262 1 4 5 28
263 263 1 8 5 28
264 264 1 10 5 28
265 265 1 12 5 28
266 266 1 14 5 28
267 267 1 18 5 28
268 268 1 6 5 30
269 269 1 8 5 30
270 270 1 10 5 30
271 271 1 12 5 30
272 272 1 14 5 30
273 273 1 16 5 30
274 274 1 18 5 30
275 275 1 4 5 32
276 276 1 6 5 32
277 277 1 8 5 32
278 278 1 10 5 32
279 279 1 16 5 32
280 280 1 6 7 4
281 281 1 8 7 4
282 282 1 10 7 4
283 283 1 14 7 4
284 284 1 16 7 4
285 285 1 18 7 4
286 286 1 6 7 6
287 287 1 8 7 6
288 288 1 10 7 6
289 289 1 14 7 6
290 290 1 16 7 6
291 291 1 4 7 8
292 292 1 8 7 8
293 293 1 10 7 8
294 294 1 16 7 8
295 295 1 4 7 10
296 296 1 6 7 10
297 297 1 8 7 10
298 298 1 10 7 10
299 299 1 12 7 10
300 300 1 16 7 10
301 301 1 18 7 10
302 302 1 4 7 12
303 303 1 8 7 12
304 304 1 12 7 12
305 305 1 14 7 12
306 306 1 4 7 14
307 307 1 8 7 14
308 308 1 10 7 14
309 309 1 12 7 14
310 310 1 14 7 14
311 311 1 16 7 14
312 312 1 6 7 16
313 313 1 8 7 16
314 314 1 10 7 16
315 315 1 12 7 16
316 316 1 14 7 16
317 317 1 16 7 16
318 318 1 18 7 16
319 319 1 4 7 18
320 320 1 6 7 18
321 321 1 10 7 18
322 322 1 12 7 18
323 323 1 14 7 18
324 324 1 8 7 20
325 325 1 10 7 20
326 326 1 12 7 20
327 327 1 14 7 20
328 328 1 16 7 20
329 329 1 18 7 20
330 330 1 4 7 22
331 331 1 6 7 22
332 332 1 10 7 22
333 333 1 14 7 22
334 334 1 16 7 22
335 335 1 8 7 24
336 336 1 10 7 24
337 337 1 12 7 24
338 338 1 14 7 24
339 339 1 16 7 24
340 340 1 4 7 26
341 341 1 6 7 26
342 342 1 8 7 26
343 343 1 12 7 26
344 344 1 14 7 26
345 345 1 16 7 26
346 346 1 18 7 26
347 347 1 4 7 28
348 348 1 6 7 28
349 349 1 8 7 28
350 350 1 14 7 28
351 351 1 16 7 28
352 352 1 4 7 30
353 353 1 6 7 30
354 354 1 10 7 30
355 355 1 14 7 30
356 356 1 18 7 30
357 357 1 10 7 32
358 358 1 12 7 32
359 359 1 14 7 32
360 360 1 16 7 32
361 361 1 18 7 32
362 362 1 4 9 4
363 363 1 6 9 4
364 364 1 8 9 4
365 365 1 10 9 4
366 366 1 14 9 4
367 367 1 4 9 6
368 368 1 6 9 6
369 369 1 8 9 6
370 370 1 10 9 6
371 371 1 12 9 6
372 372 1 14 9 6
373 373 1 16 9 6
374 374 1 18 9 6
375 375 1 4 9 8
376 376 1 6 9 8
377 377 1 10 9 8
378 378 1 12 9 8
379 379 1 14 9 8
380 380 1 16 9 8
381 381 1 4 9 10
382 382 1 8 9 10
383 383 1 10 9 10
384 384 1 12 9 10
385 385 1 14 9 10
386 386 1 16 9 10
387 387 1 18 9 10
388 388 1 4 9 12
389 389 1 6 9 12
390 390 1 8 9 12
391 391 1 10 9 12
392 392 1 4 9 14
393 393 1 6 9 14
394 394 1 8 9 14
395 395 1 10 9 14
396 396 1 12 9 14
397 397 1 14 9 14
398 398 1 16 9 14
399 399 1 18 9 14
400 400 1 8 9 16
401 401 1 12 9 16
402 402 1 14 9 16
403 403 1 16 9 16
404 404 1 18 9 16
405 405 1 4 9 18
406 406 1 6 9 18
407 407 1 8 9 18
408 408 1 10 9 18
409 409 1 12 9 18
410 410 1 16 9 18
411 411 1 6 9 20
412 412 1 10 9 20
413 413 1 12 9 20
414 414 1 14 9 20
415 415 1 16 9 20
416 416 1 18 9 20
417 417 1 4 9 22
418 418 1 6 9 22
419 419 1 8 9 22
420 420 1 12 9 22
421 421 1 14 9 22
422 422 1 4 9 24
423 423 1 6 9 24
424 424 1 8 9 24
425 425 1 10 9 24
426 426 1 12 9 24
427 427 1 14 9 24
428 428 1 16 9 24
429 429 1 18 9 24
430 430 1 4 9 26
431 431 1 8 9 26
432 432 1 10 9 26
433 433 1 12 9 26
434 434 1 14 9 26
435 435 1 16 9 26
436 436 1 18 9 26
437 437 1 4 9 28
438 438 1 8 9 28
439 439 1 10 9 28
440 440 1 12 9 28
441 441 1 14 9 28
442 442 1 16 9 28
443 443 1 6 9 30
444 444 1 8 9 30
445 445 1 10 9 30
446 446 1 12 9 30
447 447 1 14 9 30
448 448 1 16 9 30
449 449 1 8 9 32
450 450 1 10 9 32
451 451 1 14 9 32
452 452 1 4 11 4
453 453 1 6 11 4
454 454 1 8 11 4
455 455 1 10 11 4
456 456 1 12 11 4
457 457 1 14 11 4
458 458 1 16 11 4
459 459 1 18 11 4
460 460 1 6 11 6
461 461 1 8 11 6
462 462 1 10 11 6
463 463 1 12 11 6
464 464 1 14 11 6
465 465 1 16 11 6
466 466 1 4 11 8
467 467 1 6 11 8
468 468 1 8 11 8
469 469 1 10 11 8
470 470 1 12 11 8
471 471 1 14 11 8
472 472 1 18 11 8
473 473 1 6 11 10
474 474 1 8 11 10
475 475 1 10 11 10
476 476 1 12 11 10
477 477 1 14 11 10
478 478 1 16 11 10
479 479 1 18 11 10
480 480 1 4 11 12
481 481 1 6 11 12
482 482 1 12 11 12
483 483 1 14 11 12
484 484 1 16 11 12
485 485 1 4 11 14
486 486 1 6 11 14
487 487 1 10 11 14
488 488 1 12 11 14
489 489 1 16 11 14
490 490 1 14 11 16
491 491 1 18 11 16
492 492 1 4 11 18
493 493 1 6 11 18
494 494 1 8 11 18
495 495 1 10 11 18
496 496 1 14 11 18
497 497 1 16 11 18
498 498 1 18 11 18
499 499 1 8 11 20
500 500 1 10 11 20
501 501 1 12 11 20
502 502 1 16 11 20
503 503 1 10 11 22
504 504 1 12 11 22
505 505 1 16 11 22
506 506 1 18 11 22
507 507 1 4 11 24
508 508 1 8 11 24
509 509 1 10 11 24
510 510 1 12 11 24
511 511 1 14 11 24
512 512 1 16 11 24
513 513 1 18 11 24
514 514 1 6 11 26
515 515 1 12 11 26
516 516 1 14 11 26
517 517 1 18 11 26
518 518 1 4 11 28
519 519 1 6 11 28
520 520 1 10 11 28
521 521 1 12 11 28
522 522 1 14 11 28
523 523 1 16 11 28
524 524 1 18 11 28
525 525 1 8 11 30
526 526 1 10 11 30
527 527 1 12 11 30
528 528 1 16 11 30
529 529 1 18 11 30
530 530 1 4 11 32
531 531 1 6 11 32
532 532 1 10 11 32
533 533 1 12 11 32
534 534 1 14 11 32
535 535 1 16 11 32
536 536 1 6 13 4
537 537 1 10 13 4
538 538 1 12 13 4
539 539 1 18 13 4
540 540 1 4 13 6
541 541 1 6 13 6
542 542 1 8 13 6
543 543 1 12 13 6
544 544 1 14 13 6
545 545 1 16 13 6
546 546 1 4 13 8
547 547 1 12 13 8
548 548 1 4 13 10
549 549 1 8 13 10
550 550 1 14 13 10
551 551 1 16 13 10
552 552 1 4 13 12
553 553 1 6 13 12
554 554 1 16 13 12
555 555 1 18 13 12
556 556 1 4 13 14
557 557 1 10 13 14
558 558 1 12 13 14
559 559 1 14 13 14
560 560 1 18 13 14
561 561 1 4 13 16
562 562 1 8 13 16
563 563 1 14 13 16
564 564 1 16 13 16
565 565 1 18 13 16
566 566 1 4 13 18
567 567 1 6 13 18
568 568 1 8 13 18
569 569 1 12 13 18
570 570 1 14 13 18
571 571 1 16 13 18
572 572 1 4 13 20
573 573 1 6 13 20
574 574 1 8 13 20
575 575 1 10 13 20
576 576 1 16 13 20
577 577 1 18 13 20
578 578 1 4 13 22
579 579 1 6 13 22
580 580 1 8 13 22
581 581 1 16 13 22
582 582 1 18 13 22
583 583 1 4 13 24
584 584 1 8 13 24
585 585 1 14 13 24
586 586 1 16 13 24
587 587 1 18 13 24
588 588 1 4 13 26
589 589 1 6 13 26
590 590 1 8 13 26
591 591 1 12 13 26
592 592 1 14 13 26
593 593 1 16 13 26
594 594 1 4 13 28
595 595 1 6 13 28
596 596 1 8 13 28
597 597 1 10 13 28
598 598 1 12 13 28
599 599 1 14 13 28
600 600 1 4 13 30
601 601 1 8 13 30
602 602 1 10 13 30
603 603 1 14 13 30
604 604 1 16 13 30
605 605 1 4 13 32
606 606 1 12 13 32
607 607 1 16 13 32
608 608 1 6 15 4
609 609 1 10 15 4
610 610 1 12 15 4
611 611 1 14 15 4
612 612 1 16 15 4
613 613 1 18 15 4
614 614 1 4 15 6
615 615 1 6 15 6
616 616 1 10 15 6
617 617 1 16 15 6
618 618 1 18 15 6
619 619 1 4 15 8
620 620 1 6 15 8
621 621 1 12 15 8
622 622 1 14 15 8
623 623 1 16 15 8
624 624 1 18 15 8
625 625 1 6 15 10
626 626 1 8 15 10
627 627 1 10 15 10
628 628 1 4 15 12
629 629 1 6 15 12
630 630 1 8 15 12
631 631 1 10 15 12
632 632 1 14 15 12
633 633 1 12 15 14
634 634 1 14 15 14
635 635 1 4 15 16
636 636 1 6 15 16
637 637 1 8 15 16
638 638 1 16 15 16
639 639 1 18 15 16
640 640 1 4 15 18
641 641 1 6 15 18
642 642 1 10 15 18
643 643 1 12 15 18
644 644 1 18 15 18
645 645 1 6 15 20
646 646 1 8 15 20
647 647 1 10 15 20
648 648 1 12 15 20
649 649 1 14 15 20
650 650 1 18 15 20
651 651 1 6 15 22
652 652 1 8 15 22
653 653 1 10 15 22
654 654 1 12 15 22
655 655 1 16 15 22
656 656 1 18 15 22
657 657 1 4 15 24
658 658 1 6 15 24
659 659 1 10 15 24
660 660 1 12 15 24
661 661 1 14 15 24
662 662 1 16 15 24
663 663 1 18 15 24
664 664 1 4 15 26
665 665 1 6 15 26
666 666 1 14 15 26
667 667 1 16 15 26
668 668 1 18 15 26
669 669 1 4 15 28
670 670 1 6 15 28
671 671 1 10 15 28
672 672 1 12 15 28
673 673 1 14 15 28
674 674 1 16 15 28
675 675 1 4 15 30
676 676 1 6 15 30
677 677 1 12 15 30
678 678 1 18 15 30
679 679 1 4 15 32
680 680 1 6 15 32
681 681 1 8 15 32
682 682 1 12 15 32
683 683 1 14 15 32
684 684 1 16 15 32


