lammps cell input
2562 atoms
7680 bonds
5120 angles
7680 dihedrals

1 atom types
7680 bond types
5120 angle types
7680 dihedral types
0 100 xlo xhi
0 100 ylo yhi
0 100 zlo zhi

Masses

1 4.3911

Bond Coeffs

1 1.98386e-05 0.83476 0.5 1.728e-05
 2 1.98386e-05 1.20382 0.5 3.59369e-05
 3 1.98386e-05 1.38366 0.5 4.74766e-05
 4 1.98386e-05 1.20382 0.5 3.59369e-05
 5 1.98386e-05 0.83476 0.5 1.728e-05
 6 1.98386e-05 0.83476 0.5 1.728e-05
 7 1.98386e-05 1.20382 0.5 3.59369e-05
 8 1.98386e-05 1.38366 0.5 4.74766e-05
 9 1.98386e-05 1.20382 0.5 3.59369e-05
 10 1.98386e-05 0.83476 0.5 1.728e-05
 11 1.98386e-05 0.83476 0.5 1.728e-05
 12 1.98386e-05 1.20382 0.5 3.59369e-05
 13 1.98386e-05 1.38366 0.5 4.74766e-05
 14 1.98386e-05 1.20382 0.5 3.59369e-05
 15 1.98386e-05 0.83476 0.5 1.728e-05
 16 1.98386e-05 0.83476 0.5 1.728e-05
 17 1.98386e-05 1.20382 0.5 3.59369e-05
 18 1.98386e-05 1.38366 0.5 4.74766e-05
 19 1.98386e-05 1.20382 0.5 3.59369e-05
 20 1.98386e-05 0.83476 0.5 1.728e-05
 21 1.98386e-05 0.883005 0.5 1.93351e-05
 22 1.98386e-05 1.33899 0.5 4.44604e-05
 23 1.98386e-05 1.33899 0.5 4.44604e-05
 24 1.98386e-05 1.09173 0.5 2.95565e-05
 25 1.98386e-05 1.09173 0.5 2.95565e-05
 26 1.98386e-05 0.883005 0.5 1.93351e-05
 27 1.98386e-05 1.33899 0.5 4.44604e-05
 28 1.98386e-05 1.33899 0.5 4.44604e-05
 29 1.98386e-05 1.09173 0.5 2.95565e-05
 30 1.98386e-05 1.09173 0.5 2.95565e-05
 31 1.98386e-05 1.09173 0.5 2.95565e-05
 32 1.98386e-05 1.09173 0.5 2.95565e-05
 33 1.98386e-05 1.33899 0.5 4.44604e-05
 34 1.98386e-05 1.33899 0.5 4.44604e-05
 35 1.98386e-05 0.883005 0.5 1.93351e-05
 36 1.98386e-05 1.09173 0.5 2.95565e-05
 37 1.98386e-05 1.09173 0.5 2.95565e-05
 38 1.98386e-05 1.33899 0.5 4.44604e-05
 39 1.98386e-05 1.33899 0.5 4.44604e-05
 40 1.98386e-05 0.883005 0.5 1.93351e-05
 41 1.98386e-05 1.28311 0.5 4.08273e-05
 42 1.98386e-05 1.28311 0.5 4.08273e-05
 43 1.98386e-05 1.37727 0.5 4.70391e-05
 44 1.98386e-05 1.37727 0.5 4.70391e-05
 45 1.98386e-05 1.31399 0.5 4.28157e-05
 46 1.98386e-05 1.31399 0.5 4.28157e-05
 47 1.98386e-05 1.37727 0.5 4.70391e-05
 48 1.98386e-05 1.37727 0.5 4.70391e-05
 49 1.98386e-05 1.28311 0.5 4.08273e-05
 50 1.98386e-05 1.28311 0.5 4.08273e-05
 51 1.98386e-05 1.31399 0.5 4.28157e-05
 52 1.98386e-05 1.37727 0.5 4.70391e-05
 53 1.98386e-05 1.37727 0.5 4.70391e-05
 54 1.98386e-05 1.28311 0.5 4.08273e-05
 55 1.98386e-05 1.28311 0.5 4.08273e-05
 56 1.98386e-05 1.28311 0.5 4.08273e-05
 57 1.98386e-05 1.28311 0.5 4.08273e-05
 58 1.98386e-05 1.37727 0.5 4.70391e-05
 59 1.98386e-05 1.37727 0.5 4.70391e-05
 60 1.98386e-05 1.31399 0.5 4.28157e-05
 61 1.98386e-05 1.38578 0.5 4.76219e-05
 62 1.98386e-05 1.38578 0.5 4.76219e-05
 63 1.98386e-05 1.57347 0.5 6.13956e-05
 64 1.98386e-05 1.57347 0.5 6.13956e-05
 65 1.98386e-05 1.57347 0.5 6.13956e-05
 66 1.98386e-05 1.57347 0.5 6.13956e-05
 67 1.98386e-05 1.38937 0.5 4.78694e-05
 68 1.98386e-05 1.34067 0.5 4.45725e-05
 69 1.98386e-05 1.53744 0.5 5.86159e-05
 70 1.98386e-05 1.31357 0.5 4.27883e-05
 71 1.98386e-05 1.51001 0.5 5.65429e-05
 72 1.98386e-05 1.26692 0.5 3.98031e-05
 73 1.98386e-05 1.38937 0.5 4.78694e-05
 74 1.98386e-05 1.34067 0.5 4.45725e-05
 75 1.98386e-05 1.53744 0.5 5.86159e-05
 76 1.98386e-05 1.31357 0.5 4.27883e-05
 77 1.98386e-05 1.51001 0.5 5.65429e-05
 78 1.98386e-05 1.26692 0.5 3.98031e-05
 79 1.98386e-05 1.38937 0.5 4.78694e-05
 80 1.98386e-05 1.34067 0.5 4.45725e-05
 81 1.98386e-05 1.53744 0.5 5.86159e-05
 82 1.98386e-05 1.31357 0.5 4.27883e-05
 83 1.98386e-05 1.51001 0.5 5.65429e-05
 84 1.98386e-05 1.26692 0.5 3.98031e-05
 85 1.98386e-05 1.38937 0.5 4.78694e-05
 86 1.98386e-05 1.34067 0.5 4.45725e-05
 87 1.98386e-05 1.53744 0.5 5.86159e-05
 88 1.98386e-05 1.31357 0.5 4.27883e-05
 89 1.98386e-05 1.51001 0.5 5.65429e-05
 90 1.98386e-05 1.26692 0.5 3.98031e-05
 91 1.98386e-05 0.966498 0.5 2.31645e-05
 92 1.98386e-05 1.25195 0.5 3.88681e-05
 93 1.98386e-05 1.55763 0.5 6.01661e-05
 94 1.98386e-05 1.54991 0.5 5.95712e-05
 95 1.98386e-05 1.23362 0.5 3.77382e-05
 96 1.98386e-05 0.957016 0.5 2.27122e-05
 97 1.98386e-05 0.966498 0.5 2.31645e-05
 98 1.98386e-05 1.25195 0.5 3.88681e-05
 99 1.98386e-05 1.55763 0.5 6.01661e-05
 100 1.98386e-05 1.54991 0.5 5.95712e-05
 101 1.98386e-05 1.23362 0.5 3.77382e-05
 102 1.98386e-05 0.957016 0.5 2.27122e-05
 103 1.98386e-05 0.966498 0.5 2.31645e-05
 104 1.98386e-05 1.25195 0.5 3.88681e-05
 105 1.98386e-05 1.55763 0.5 6.01661e-05
 106 1.98386e-05 1.54991 0.5 5.95712e-05
 107 1.98386e-05 1.23362 0.5 3.77382e-05
 108 1.98386e-05 0.957016 0.5 2.27122e-05
 109 1.98386e-05 0.966498 0.5 2.31645e-05
 110 1.98386e-05 1.25195 0.5 3.88681e-05
 111 1.98386e-05 1.55763 0.5 6.01661e-05
 112 1.98386e-05 1.54991 0.5 5.95712e-05
 113 1.98386e-05 1.23362 0.5 3.77382e-05
 114 1.98386e-05 0.957016 0.5 2.27122e-05
 115 1.98386e-05 0.971097 0.5 2.33855e-05
 116 1.98386e-05 1.26309 0.5 3.9563e-05
 117 1.98386e-05 1.47417 0.5 5.38908e-05
 118 1.98386e-05 1.46273 0.5 5.30577e-05
 119 1.98386e-05 1.25256 0.5 3.89064e-05
 120 1.98386e-05 0.940562 0.5 2.19379e-05
 121 1.98386e-05 0.971097 0.5 2.33855e-05
 122 1.98386e-05 1.26309 0.5 3.9563e-05
 123 1.98386e-05 1.47417 0.5 5.38908e-05
 124 1.98386e-05 1.46273 0.5 5.30577e-05
 125 1.98386e-05 1.25256 0.5 3.89064e-05
 126 1.98386e-05 0.940562 0.5 2.19379e-05
 127 1.98386e-05 0.971097 0.5 2.33855e-05
 128 1.98386e-05 1.26309 0.5 3.9563e-05
 129 1.98386e-05 1.47417 0.5 5.38908e-05
 130 1.98386e-05 1.46273 0.5 5.30577e-05
 131 1.98386e-05 1.25256 0.5 3.89064e-05
 132 1.98386e-05 0.940562 0.5 2.19379e-05
 133 1.98386e-05 0.971097 0.5 2.33855e-05
 134 1.98386e-05 1.26309 0.5 3.9563e-05
 135 1.98386e-05 1.47417 0.5 5.38908e-05
 136 1.98386e-05 1.46273 0.5 5.30577e-05
 137 1.98386e-05 1.25256 0.5 3.89064e-05
 138 1.98386e-05 0.940562 0.5 2.19379e-05
 139 1.98386e-05 0.75391 0.5 1.40948e-05
 140 1.98386e-05 1.40953 0.5 4.92683e-05
 141 1.98386e-05 1.40953 0.5 4.92683e-05
 142 1.98386e-05 1.40953 0.5 4.92683e-05
 143 1.98386e-05 1.40953 0.5 4.92683e-05
 144 1.98386e-05 0.75391 0.5 1.40948e-05
 145 1.98386e-05 1.1008 0.5 3.00497e-05
 146 1.98386e-05 1.1008 0.5 3.00497e-05
 147 1.98386e-05 1.38366 0.5 4.74766e-05
 148 1.98386e-05 1.38366 0.5 4.74766e-05
 149 1.98386e-05 1.1008 0.5 3.00497e-05
 150 1.98386e-05 1.1008 0.5 3.00497e-05
 151 1.98386e-05 1.1008 0.5 3.00497e-05
 152 1.98386e-05 1.1008 0.5 3.00497e-05
 153 1.98386e-05 1.38366 0.5 4.74766e-05
 154 1.98386e-05 1.38366 0.5 4.74766e-05
 155 1.98386e-05 1.1008 0.5 3.00497e-05
 156 1.98386e-05 1.1008 0.5 3.00497e-05
 157 1.98386e-05 0.75391 0.5 1.40948e-05
 158 1.98386e-05 1.40953 0.5 4.92683e-05
 159 1.98386e-05 1.40953 0.5 4.92683e-05
 160 1.98386e-05 1.40953 0.5 4.92683e-05
 161 1.98386e-05 1.40953 0.5 4.92683e-05
 162 1.98386e-05 0.75391 0.5 1.40948e-05
 163 1.98386e-05 0.940562 0.5 2.19379e-05
 164 1.98386e-05 1.25256 0.5 3.89064e-05
 165 1.98386e-05 1.46273 0.5 5.30577e-05
 166 1.98386e-05 1.47417 0.5 5.38908e-05
 167 1.98386e-05 1.26309 0.5 3.9563e-05
 168 1.98386e-05 0.971097 0.5 2.33855e-05
 169 1.98386e-05 0.940562 0.5 2.19379e-05
 170 1.98386e-05 1.25256 0.5 3.89064e-05
 171 1.98386e-05 1.46273 0.5 5.30577e-05
 172 1.98386e-05 1.47417 0.5 5.38908e-05
 173 1.98386e-05 1.26309 0.5 3.9563e-05
 174 1.98386e-05 0.971097 0.5 2.33855e-05
 175 1.98386e-05 0.940562 0.5 2.19379e-05
 176 1.98386e-05 1.25256 0.5 3.89064e-05
 177 1.98386e-05 1.46273 0.5 5.30577e-05
 178 1.98386e-05 1.47417 0.5 5.38908e-05
 179 1.98386e-05 1.26309 0.5 3.9563e-05
 180 1.98386e-05 0.971097 0.5 2.33855e-05
 181 1.98386e-05 0.940562 0.5 2.19379e-05
 182 1.98386e-05 1.25256 0.5 3.89064e-05
 183 1.98386e-05 1.46273 0.5 5.30577e-05
 184 1.98386e-05 1.47417 0.5 5.38908e-05
 185 1.98386e-05 1.26309 0.5 3.9563e-05
 186 1.98386e-05 0.971097 0.5 2.33855e-05
 187 1.98386e-05 0.957016 0.5 2.27122e-05
 188 1.98386e-05 1.23362 0.5 3.77382e-05
 189 1.98386e-05 1.54991 0.5 5.95712e-05
 190 1.98386e-05 1.55763 0.5 6.01661e-05
 191 1.98386e-05 1.25195 0.5 3.88681e-05
 192 1.98386e-05 0.966498 0.5 2.31645e-05
 193 1.98386e-05 0.957016 0.5 2.27122e-05
 194 1.98386e-05 1.23362 0.5 3.77382e-05
 195 1.98386e-05 1.54991 0.5 5.95712e-05
 196 1.98386e-05 1.55763 0.5 6.01661e-05
 197 1.98386e-05 1.25195 0.5 3.88681e-05
 198 1.98386e-05 0.966498 0.5 2.31645e-05
 199 1.98386e-05 0.957016 0.5 2.27122e-05
 200 1.98386e-05 1.23362 0.5 3.77382e-05
 201 1.98386e-05 1.54991 0.5 5.95712e-05
 202 1.98386e-05 1.55763 0.5 6.01661e-05
 203 1.98386e-05 1.25195 0.5 3.88681e-05
 204 1.98386e-05 0.966498 0.5 2.31645e-05
 205 1.98386e-05 0.957016 0.5 2.27122e-05
 206 1.98386e-05 1.23362 0.5 3.77382e-05
 207 1.98386e-05 1.54991 0.5 5.95712e-05
 208 1.98386e-05 1.55763 0.5 6.01661e-05
 209 1.98386e-05 1.25195 0.5 3.88681e-05
 210 1.98386e-05 0.966498 0.5 2.31645e-05
 211 1.98386e-05 1.26692 0.5 3.98031e-05
 212 1.98386e-05 1.51001 0.5 5.65429e-05
 213 1.98386e-05 1.31357 0.5 4.27883e-05
 214 1.98386e-05 1.53744 0.5 5.86159e-05
 215 1.98386e-05 1.34067 0.5 4.45725e-05
 216 1.98386e-05 1.38937 0.5 4.78694e-05
 217 1.98386e-05 1.26692 0.5 3.98031e-05
 218 1.98386e-05 1.51001 0.5 5.65429e-05
 219 1.98386e-05 1.31357 0.5 4.27883e-05
 220 1.98386e-05 1.53744 0.5 5.86159e-05
 221 1.98386e-05 1.34067 0.5 4.45725e-05
 222 1.98386e-05 1.38937 0.5 4.78694e-05
 223 1.98386e-05 1.26692 0.5 3.98031e-05
 224 1.98386e-05 1.51001 0.5 5.65429e-05
 225 1.98386e-05 1.31357 0.5 4.27883e-05
 226 1.98386e-05 1.53744 0.5 5.86159e-05
 227 1.98386e-05 1.34067 0.5 4.45725e-05
 228 1.98386e-05 1.38937 0.5 4.78694e-05
 229 1.98386e-05 1.26692 0.5 3.98031e-05
 230 1.98386e-05 1.51001 0.5 5.65429e-05
 231 1.98386e-05 1.31357 0.5 4.27883e-05
 232 1.98386e-05 1.53744 0.5 5.86159e-05
 233 1.98386e-05 1.34067 0.5 4.45725e-05
 234 1.98386e-05 1.38937 0.5 4.78694e-05
 235 1.98386e-05 1.57347 0.5 6.13956e-05
 236 1.98386e-05 1.57347 0.5 6.13956e-05
 237 1.98386e-05 1.57347 0.5 6.13956e-05
 238 1.98386e-05 1.57347 0.5 6.13956e-05
 239 1.98386e-05 1.38578 0.5 4.76219e-05
 240 1.98386e-05 1.38578 0.5 4.76219e-05
 241 1.98386e-05 1.44454 0.5 5.17466e-05
 242 1.98386e-05 1.43623 0.5 5.11526e-05
 243 1.98386e-05 1.43623 0.5 5.11526e-05
 244 1.98386e-05 1.64636 0.5 6.7216e-05
 245 1.98386e-05 1.64636 0.5 6.7216e-05
 246 1.98386e-05 1.4493 0.5 5.20876e-05
 247 1.98386e-05 1.44454 0.5 5.17466e-05
 248 1.98386e-05 1.43623 0.5 5.11526e-05
 249 1.98386e-05 1.43623 0.5 5.11526e-05
 250 1.98386e-05 1.64636 0.5 6.7216e-05
 251 1.98386e-05 1.64636 0.5 6.7216e-05
 252 1.98386e-05 1.4493 0.5 5.20876e-05
 253 1.98386e-05 1.64465 0.5 6.70759e-05
 254 1.98386e-05 1.44847 0.5 5.20282e-05
 255 1.98386e-05 1.64433 0.5 6.70502e-05
 256 1.98386e-05 1.45819 0.5 5.2729e-05
 257 1.98386e-05 1.65702 0.5 6.80889e-05
 258 1.98386e-05 1.63521 0.5 6.63083e-05
 259 1.98386e-05 1.64465 0.5 6.70759e-05
 260 1.98386e-05 1.44847 0.5 5.20282e-05
 261 1.98386e-05 1.64433 0.5 6.70502e-05
 262 1.98386e-05 1.45819 0.5 5.2729e-05
 263 1.98386e-05 1.65702 0.5 6.80889e-05
 264 1.98386e-05 1.63521 0.5 6.63083e-05
 265 1.98386e-05 1.64465 0.5 6.70759e-05
 266 1.98386e-05 1.44847 0.5 5.20282e-05
 267 1.98386e-05 1.64433 0.5 6.70502e-05
 268 1.98386e-05 1.45819 0.5 5.2729e-05
 269 1.98386e-05 1.65702 0.5 6.80889e-05
 270 1.98386e-05 1.63521 0.5 6.63083e-05
 271 1.98386e-05 1.64465 0.5 6.70759e-05
 272 1.98386e-05 1.44847 0.5 5.20282e-05
 273 1.98386e-05 1.64433 0.5 6.70502e-05
 274 1.98386e-05 1.45819 0.5 5.2729e-05
 275 1.98386e-05 1.65702 0.5 6.80889e-05
 276 1.98386e-05 1.63521 0.5 6.63083e-05
 277 1.98386e-05 1.57449 0.5 6.14753e-05
 278 1.98386e-05 1.39656 0.5 4.83657e-05
 279 1.98386e-05 1.38301 0.5 4.74321e-05
 280 1.98386e-05 1.37987 0.5 4.72167e-05
 281 1.98386e-05 1.53404 0.5 5.83572e-05
 282 1.98386e-05 1.30606 0.5 4.23006e-05
 283 1.98386e-05 1.57449 0.5 6.14753e-05
 284 1.98386e-05 1.39656 0.5 4.83657e-05
 285 1.98386e-05 1.38301 0.5 4.74321e-05
 286 1.98386e-05 1.37987 0.5 4.72167e-05
 287 1.98386e-05 1.53404 0.5 5.83572e-05
 288 1.98386e-05 1.30606 0.5 4.23006e-05
 289 1.98386e-05 1.57449 0.5 6.14753e-05
 290 1.98386e-05 1.39656 0.5 4.83657e-05
 291 1.98386e-05 1.38301 0.5 4.74321e-05
 292 1.98386e-05 1.37987 0.5 4.72167e-05
 293 1.98386e-05 1.53404 0.5 5.83572e-05
 294 1.98386e-05 1.30606 0.5 4.23006e-05
 295 1.98386e-05 1.57449 0.5 6.14753e-05
 296 1.98386e-05 1.39656 0.5 4.83657e-05
 297 1.98386e-05 1.38301 0.5 4.74321e-05
 298 1.98386e-05 1.37987 0.5 4.72167e-05
 299 1.98386e-05 1.53404 0.5 5.83572e-05
 300 1.98386e-05 1.30606 0.5 4.23006e-05
 301 1.98386e-05 1.57327 0.5 6.138e-05
 302 1.98386e-05 1.57327 0.5 6.138e-05
 303 1.98386e-05 1.56989 0.5 6.11167e-05
 304 1.98386e-05 1.56989 0.5 6.11167e-05
 305 1.98386e-05 1.32304 0.5 4.34075e-05
 306 1.98386e-05 1.32304 0.5 4.34075e-05
 307 1.98386e-05 1.57327 0.5 6.138e-05
 308 1.98386e-05 1.57327 0.5 6.138e-05
 309 1.98386e-05 1.56989 0.5 6.11167e-05
 310 1.98386e-05 1.56989 0.5 6.11167e-05
 311 1.98386e-05 1.32304 0.5 4.34075e-05
 312 1.98386e-05 1.32304 0.5 4.34075e-05
 313 1.98386e-05 1.3005 0.5 4.19414e-05
 314 1.98386e-05 1.0894 0.5 2.94303e-05
 315 1.98386e-05 1.60682 0.5 6.4026e-05
 316 1.98386e-05 1.43143 0.5 5.08112e-05
 317 1.98386e-05 1.20094 0.5 3.57656e-05
 318 1.98386e-05 1.03804 0.5 2.6721e-05
 319 1.98386e-05 1.3005 0.5 4.19414e-05
 320 1.98386e-05 1.0894 0.5 2.94303e-05
 321 1.98386e-05 1.60682 0.5 6.4026e-05
 322 1.98386e-05 1.43143 0.5 5.08112e-05
 323 1.98386e-05 1.20094 0.5 3.57656e-05
 324 1.98386e-05 1.03804 0.5 2.6721e-05
 325 1.98386e-05 1.3005 0.5 4.19414e-05
 326 1.98386e-05 1.0894 0.5 2.94303e-05
 327 1.98386e-05 1.60682 0.5 6.4026e-05
 328 1.98386e-05 1.43143 0.5 5.08112e-05
 329 1.98386e-05 1.20094 0.5 3.57656e-05
 330 1.98386e-05 1.03804 0.5 2.6721e-05
 331 1.98386e-05 1.3005 0.5 4.19414e-05
 332 1.98386e-05 1.0894 0.5 2.94303e-05
 333 1.98386e-05 1.60682 0.5 6.4026e-05
 334 1.98386e-05 1.43143 0.5 5.08112e-05
 335 1.98386e-05 1.20094 0.5 3.57656e-05
 336 1.98386e-05 1.03804 0.5 2.6721e-05
 337 1.98386e-05 1.11209 0.5 3.06692e-05
 338 1.98386e-05 1.20304 0.5 3.58907e-05
 339 1.98386e-05 1.60698 0.5 6.40382e-05
 340 1.98386e-05 1.36681 0.5 4.63275e-05
 341 1.98386e-05 1.16661 0.5 3.37496e-05
 342 1.98386e-05 1.11051 0.5 3.05817e-05
 343 1.98386e-05 1.11209 0.5 3.06692e-05
 344 1.98386e-05 1.20304 0.5 3.58907e-05
 345 1.98386e-05 1.60698 0.5 6.40382e-05
 346 1.98386e-05 1.36681 0.5 4.63275e-05
 347 1.98386e-05 1.16661 0.5 3.37496e-05
 348 1.98386e-05 1.11051 0.5 3.05817e-05
 349 1.98386e-05 1.11209 0.5 3.06692e-05
 350 1.98386e-05 1.20304 0.5 3.58907e-05
 351 1.98386e-05 1.60698 0.5 6.40382e-05
 352 1.98386e-05 1.36681 0.5 4.63275e-05
 353 1.98386e-05 1.16661 0.5 3.37496e-05
 354 1.98386e-05 1.11051 0.5 3.05817e-05
 355 1.98386e-05 1.11209 0.5 3.06692e-05
 356 1.98386e-05 1.20304 0.5 3.58907e-05
 357 1.98386e-05 1.60698 0.5 6.40382e-05
 358 1.98386e-05 1.36681 0.5 4.63275e-05
 359 1.98386e-05 1.16661 0.5 3.37496e-05
 360 1.98386e-05 1.11051 0.5 3.05817e-05
 361 1.98386e-05 1.03419 0.5 2.65229e-05
 362 1.98386e-05 1.38407 0.5 4.75048e-05
 363 1.98386e-05 1.42104 0.5 5.00762e-05
 364 1.98386e-05 1.58907 0.5 6.26192e-05
 365 1.98386e-05 1.34055 0.5 4.45641e-05
 366 1.98386e-05 1.12687 0.5 3.14898e-05
 367 1.98386e-05 1.03419 0.5 2.65229e-05
 368 1.98386e-05 1.38407 0.5 4.75048e-05
 369 1.98386e-05 1.42104 0.5 5.00762e-05
 370 1.98386e-05 1.58907 0.5 6.26192e-05
 371 1.98386e-05 1.34055 0.5 4.45641e-05
 372 1.98386e-05 1.12687 0.5 3.14898e-05
 373 1.98386e-05 1.03419 0.5 2.65229e-05
 374 1.98386e-05 1.38407 0.5 4.75048e-05
 375 1.98386e-05 1.42104 0.5 5.00762e-05
 376 1.98386e-05 1.58907 0.5 6.26192e-05
 377 1.98386e-05 1.34055 0.5 4.45641e-05
 378 1.98386e-05 1.12687 0.5 3.14898e-05
 379 1.98386e-05 1.03419 0.5 2.65229e-05
 380 1.98386e-05 1.38407 0.5 4.75048e-05
 381 1.98386e-05 1.42104 0.5 5.00762e-05
 382 1.98386e-05 1.58907 0.5 6.26192e-05
 383 1.98386e-05 1.34055 0.5 4.45641e-05
 384 1.98386e-05 1.12687 0.5 3.14898e-05
 385 1.98386e-05 1.02765 0.5 2.61884e-05
 386 1.98386e-05 1.30093 0.5 4.19687e-05
 387 1.98386e-05 1.51724 0.5 5.70862e-05
 388 1.98386e-05 1.28046 0.5 4.06587e-05
 389 1.98386e-05 1.49254 0.5 5.52426e-05
 390 1.98386e-05 1.00857 0.5 2.52251e-05
 391 1.98386e-05 1.02765 0.5 2.61884e-05
 392 1.98386e-05 1.30093 0.5 4.19687e-05
 393 1.98386e-05 1.51724 0.5 5.70862e-05
 394 1.98386e-05 1.28046 0.5 4.06587e-05
 395 1.98386e-05 1.49254 0.5 5.52426e-05
 396 1.98386e-05 1.00857 0.5 2.52251e-05
 397 1.98386e-05 1.02765 0.5 2.61884e-05
 398 1.98386e-05 1.30093 0.5 4.19687e-05
 399 1.98386e-05 1.51724 0.5 5.70862e-05
 400 1.98386e-05 1.28046 0.5 4.06587e-05
 401 1.98386e-05 1.49254 0.5 5.52426e-05
 402 1.98386e-05 1.00857 0.5 2.52251e-05
 403 1.98386e-05 1.02765 0.5 2.61884e-05
 404 1.98386e-05 1.30093 0.5 4.19687e-05
 405 1.98386e-05 1.51724 0.5 5.70862e-05
 406 1.98386e-05 1.28046 0.5 4.06587e-05
 407 1.98386e-05 1.49254 0.5 5.52426e-05
 408 1.98386e-05 1.00857 0.5 2.52251e-05
 409 1.98386e-05 1.11784 0.5 3.0987e-05
 410 1.98386e-05 1.11784 0.5 3.0987e-05
 411 1.98386e-05 1.57012 0.5 6.11345e-05
 412 1.98386e-05 1.57012 0.5 6.11345e-05
 413 1.98386e-05 1.21339 0.5 3.65105e-05
 414 1.98386e-05 1.21339 0.5 3.65105e-05
 415 1.98386e-05 1.11784 0.5 3.0987e-05
 416 1.98386e-05 1.11784 0.5 3.0987e-05
 417 1.98386e-05 1.57012 0.5 6.11345e-05
 418 1.98386e-05 1.57012 0.5 6.11345e-05
 419 1.98386e-05 1.21339 0.5 3.65105e-05
 420 1.98386e-05 1.21339 0.5 3.65105e-05
 421 1.98386e-05 1.04455 0.5 2.70567e-05
 422 1.98386e-05 1.2294 0.5 3.74807e-05
 423 1.98386e-05 1.30648 0.5 4.23282e-05
 424 1.98386e-05 1.29552 0.5 4.16207e-05
 425 1.98386e-05 1.48754 0.5 5.48727e-05
 426 1.98386e-05 0.904879 0.5 2.03049e-05
 427 1.98386e-05 1.04455 0.5 2.70567e-05
 428 1.98386e-05 1.2294 0.5 3.74807e-05
 429 1.98386e-05 1.30648 0.5 4.23282e-05
 430 1.98386e-05 1.29552 0.5 4.16207e-05
 431 1.98386e-05 1.48754 0.5 5.48727e-05
 432 1.98386e-05 0.904879 0.5 2.03049e-05
 433 1.98386e-05 1.04455 0.5 2.70567e-05
 434 1.98386e-05 1.2294 0.5 3.74807e-05
 435 1.98386e-05 1.30648 0.5 4.23282e-05
 436 1.98386e-05 1.29552 0.5 4.16207e-05
 437 1.98386e-05 1.48754 0.5 5.48727e-05
 438 1.98386e-05 0.904879 0.5 2.03049e-05
 439 1.98386e-05 1.04455 0.5 2.70567e-05
 440 1.98386e-05 1.2294 0.5 3.74807e-05
 441 1.98386e-05 1.30648 0.5 4.23282e-05
 442 1.98386e-05 1.29552 0.5 4.16207e-05
 443 1.98386e-05 1.48754 0.5 5.48727e-05
 444 1.98386e-05 0.904879 0.5 2.03049e-05
 445 1.98386e-05 1.06298 0.5 2.80202e-05
 446 1.98386e-05 1.42839 0.5 5.05958e-05
 447 1.98386e-05 1.52007 0.5 5.72994e-05
 448 1.98386e-05 1.50885 0.5 5.64567e-05
 449 1.98386e-05 1.27285 0.5 4.01765e-05
 450 1.98386e-05 0.940944 0.5 2.19558e-05
 451 1.98386e-05 1.06298 0.5 2.80202e-05
 452 1.98386e-05 1.42839 0.5 5.05958e-05
 453 1.98386e-05 1.52007 0.5 5.72994e-05
 454 1.98386e-05 1.50885 0.5 5.64567e-05
 455 1.98386e-05 1.27285 0.5 4.01765e-05
 456 1.98386e-05 0.940944 0.5 2.19558e-05
 457 1.98386e-05 1.06298 0.5 2.80202e-05
 458 1.98386e-05 1.42839 0.5 5.05958e-05
 459 1.98386e-05 1.52007 0.5 5.72994e-05
 460 1.98386e-05 1.50885 0.5 5.64567e-05
 461 1.98386e-05 1.27285 0.5 4.01765e-05
 462 1.98386e-05 0.940944 0.5 2.19558e-05
 463 1.98386e-05 1.06298 0.5 2.80202e-05
 464 1.98386e-05 1.42839 0.5 5.05958e-05
 465 1.98386e-05 1.52007 0.5 5.72994e-05
 466 1.98386e-05 1.50885 0.5 5.64567e-05
 467 1.98386e-05 1.27285 0.5 4.01765e-05
 468 1.98386e-05 0.940944 0.5 2.19558e-05
 469 1.98386e-05 0.842264 0.5 1.75921e-05
 470 1.98386e-05 1.44083 0.5 5.14811e-05
 471 1.98386e-05 1.44083 0.5 5.14811e-05
 472 1.98386e-05 1.3654 0.5 4.62315e-05
 473 1.98386e-05 1.3654 0.5 4.62315e-05
 474 1.98386e-05 0.815995 0.5 1.65118e-05
 475 1.98386e-05 0.842264 0.5 1.75921e-05
 476 1.98386e-05 1.44083 0.5 5.14811e-05
 477 1.98386e-05 1.44083 0.5 5.14811e-05
 478 1.98386e-05 1.3654 0.5 4.62315e-05
 479 1.98386e-05 1.3654 0.5 4.62315e-05
 480 1.98386e-05 0.815995 0.5 1.65118e-05
 481 1.98386e-05 0.90927 0.5 2.05025e-05
 482 1.98386e-05 1.23146 0.5 3.76061e-05
 483 1.98386e-05 1.43121 0.5 5.07958e-05
 484 1.98386e-05 1.5681 0.5 6.09772e-05
 485 1.98386e-05 1.21867 0.5 3.6829e-05
 486 1.98386e-05 0.885784 0.5 1.9457e-05
 487 1.98386e-05 0.90927 0.5 2.05025e-05
 488 1.98386e-05 1.23146 0.5 3.76061e-05
 489 1.98386e-05 1.43121 0.5 5.07958e-05
 490 1.98386e-05 1.5681 0.5 6.09772e-05
 491 1.98386e-05 1.21867 0.5 3.6829e-05
 492 1.98386e-05 0.885784 0.5 1.9457e-05
 493 1.98386e-05 1.14967 0.5 3.27771e-05
 494 1.98386e-05 1.17342 0.5 3.41451e-05
 495 1.98386e-05 1.63078 0.5 6.59496e-05
 496 1.98386e-05 1.43179 0.5 5.0837e-05
 497 1.98386e-05 1.14973 0.5 3.27803e-05
 498 1.98386e-05 0.947391 0.5 2.22577e-05
 499 1.98386e-05 1.14967 0.5 3.27771e-05
 500 1.98386e-05 1.17342 0.5 3.41451e-05
 501 1.98386e-05 1.63078 0.5 6.59496e-05
 502 1.98386e-05 1.43179 0.5 5.0837e-05
 503 1.98386e-05 1.14973 0.5 3.27803e-05
 504 1.98386e-05 0.947391 0.5 2.22577e-05
 505 1.98386e-05 1.14967 0.5 3.27771e-05
 506 1.98386e-05 1.17342 0.5 3.41451e-05
 507 1.98386e-05 1.63078 0.5 6.59496e-05
 508 1.98386e-05 1.43179 0.5 5.0837e-05
 509 1.98386e-05 1.14973 0.5 3.27803e-05
 510 1.98386e-05 0.947391 0.5 2.22577e-05
 511 1.98386e-05 1.14967 0.5 3.27771e-05
 512 1.98386e-05 1.17342 0.5 3.41451e-05
 513 1.98386e-05 1.63078 0.5 6.59496e-05
 514 1.98386e-05 1.43179 0.5 5.0837e-05
 515 1.98386e-05 1.14973 0.5 3.27803e-05
 516 1.98386e-05 0.947391 0.5 2.22577e-05
 517 1.98386e-05 0.90927 0.5 2.05025e-05
 518 1.98386e-05 1.23146 0.5 3.76061e-05
 519 1.98386e-05 1.43121 0.5 5.07958e-05
 520 1.98386e-05 1.5681 0.5 6.09772e-05
 521 1.98386e-05 1.21867 0.5 3.6829e-05
 522 1.98386e-05 0.885784 0.5 1.9457e-05
 523 1.98386e-05 0.90927 0.5 2.05025e-05
 524 1.98386e-05 1.23146 0.5 3.76061e-05
 525 1.98386e-05 1.43121 0.5 5.07958e-05
 526 1.98386e-05 1.5681 0.5 6.09772e-05
 527 1.98386e-05 1.21867 0.5 3.6829e-05
 528 1.98386e-05 0.885784 0.5 1.9457e-05
 529 1.98386e-05 0.831141 0.5 1.71305e-05
 530 1.98386e-05 1.43154 0.5 5.08189e-05
 531 1.98386e-05 1.34591 0.5 4.4921e-05
 532 1.98386e-05 1.49077 0.5 5.51118e-05
 533 1.98386e-05 1.42323 0.5 5.02307e-05
 534 1.98386e-05 0.909994 0.5 2.05352e-05
 535 1.98386e-05 0.831141 0.5 1.71305e-05
 536 1.98386e-05 1.43154 0.5 5.08189e-05
 537 1.98386e-05 1.34591 0.5 4.4921e-05
 538 1.98386e-05 1.49077 0.5 5.51118e-05
 539 1.98386e-05 1.42323 0.5 5.02307e-05
 540 1.98386e-05 0.909994 0.5 2.05352e-05
 541 1.98386e-05 0.869713 0.5 1.87574e-05
 542 1.98386e-05 1.22394 0.5 3.71482e-05
 543 1.98386e-05 1.54956 0.5 5.95435e-05
 544 1.98386e-05 1.27141 0.5 4.00861e-05
 545 1.98386e-05 1.21633 0.5 3.66878e-05
 546 1.98386e-05 0.89913 0.5 2.00477e-05
 547 1.98386e-05 0.869713 0.5 1.87574e-05
 548 1.98386e-05 1.22394 0.5 3.71482e-05
 549 1.98386e-05 1.54956 0.5 5.95435e-05
 550 1.98386e-05 1.27141 0.5 4.00861e-05
 551 1.98386e-05 1.21633 0.5 3.66878e-05
 552 1.98386e-05 0.89913 0.5 2.00477e-05
 553 1.98386e-05 0.869713 0.5 1.87574e-05
 554 1.98386e-05 1.22394 0.5 3.71482e-05
 555 1.98386e-05 1.54956 0.5 5.95435e-05
 556 1.98386e-05 1.27141 0.5 4.00861e-05
 557 1.98386e-05 1.21633 0.5 3.66878e-05
 558 1.98386e-05 0.89913 0.5 2.00477e-05
 559 1.98386e-05 0.869713 0.5 1.87574e-05
 560 1.98386e-05 1.22394 0.5 3.71482e-05
 561 1.98386e-05 1.54956 0.5 5.95435e-05
 562 1.98386e-05 1.27141 0.5 4.00861e-05
 563 1.98386e-05 1.21633 0.5 3.66878e-05
 564 1.98386e-05 0.89913 0.5 2.00477e-05
 565 1.98386e-05 0.831141 0.5 1.71305e-05
 566 1.98386e-05 1.43154 0.5 5.08189e-05
 567 1.98386e-05 1.34591 0.5 4.4921e-05
 568 1.98386e-05 1.49077 0.5 5.51118e-05
 569 1.98386e-05 1.42323 0.5 5.02307e-05
 570 1.98386e-05 0.909994 0.5 2.05352e-05
 571 1.98386e-05 0.831141 0.5 1.71305e-05
 572 1.98386e-05 1.43154 0.5 5.08189e-05
 573 1.98386e-05 1.34591 0.5 4.4921e-05
 574 1.98386e-05 1.49077 0.5 5.51118e-05
 575 1.98386e-05 1.42323 0.5 5.02307e-05
 576 1.98386e-05 0.909994 0.5 2.05352e-05
 577 1.98386e-05 0.856252 0.5 1.81812e-05
 578 1.98386e-05 1.47677 0.5 5.40812e-05
 579 1.98386e-05 1.25871 0.5 3.92889e-05
 580 1.98386e-05 1.25871 0.5 3.92889e-05
 581 1.98386e-05 1.47677 0.5 5.40812e-05
 582 1.98386e-05 0.856252 0.5 1.81812e-05
 583 1.98386e-05 0.856252 0.5 1.81812e-05
 584 1.98386e-05 1.47677 0.5 5.40812e-05
 585 1.98386e-05 1.25871 0.5 3.92889e-05
 586 1.98386e-05 1.25871 0.5 3.92889e-05
 587 1.98386e-05 1.47677 0.5 5.40812e-05
 588 1.98386e-05 0.856252 0.5 1.81812e-05
 589 1.98386e-05 0.895913 0.5 1.99045e-05
 590 1.98386e-05 1.17166 0.5 3.40424e-05
 591 1.98386e-05 1.38366 0.5 4.74766e-05
 592 1.98386e-05 1.38366 0.5 4.74766e-05
 593 1.98386e-05 1.17166 0.5 3.40424e-05
 594 1.98386e-05 0.895913 0.5 1.99045e-05
 595 1.98386e-05 0.895913 0.5 1.99045e-05
 596 1.98386e-05 1.17166 0.5 3.40424e-05
 597 1.98386e-05 1.38366 0.5 4.74766e-05
 598 1.98386e-05 1.38366 0.5 4.74766e-05
 599 1.98386e-05 1.17166 0.5 3.40424e-05
 600 1.98386e-05 0.895913 0.5 1.99045e-05
 601 1.98386e-05 0.895913 0.5 1.99045e-05
 602 1.98386e-05 1.17166 0.5 3.40424e-05
 603 1.98386e-05 1.38366 0.5 4.74766e-05
 604 1.98386e-05 1.38366 0.5 4.74766e-05
 605 1.98386e-05 1.17166 0.5 3.40424e-05
 606 1.98386e-05 0.895913 0.5 1.99045e-05
 607 1.98386e-05 0.895913 0.5 1.99045e-05
 608 1.98386e-05 1.17166 0.5 3.40424e-05
 609 1.98386e-05 1.38366 0.5 4.74766e-05
 610 1.98386e-05 1.38366 0.5 4.74766e-05
 611 1.98386e-05 1.17166 0.5 3.40424e-05
 612 1.98386e-05 0.895913 0.5 1.99045e-05
 613 1.98386e-05 0.856252 0.5 1.81812e-05
 614 1.98386e-05 1.47677 0.5 5.40812e-05
 615 1.98386e-05 1.25871 0.5 3.92889e-05
 616 1.98386e-05 1.25871 0.5 3.92889e-05
 617 1.98386e-05 1.47677 0.5 5.40812e-05
 618 1.98386e-05 0.856252 0.5 1.81812e-05
 619 1.98386e-05 0.856252 0.5 1.81812e-05
 620 1.98386e-05 1.47677 0.5 5.40812e-05
 621 1.98386e-05 1.25871 0.5 3.92889e-05
 622 1.98386e-05 1.25871 0.5 3.92889e-05
 623 1.98386e-05 1.47677 0.5 5.40812e-05
 624 1.98386e-05 0.856252 0.5 1.81812e-05
 625 1.98386e-05 0.909994 0.5 2.05352e-05
 626 1.98386e-05 1.42323 0.5 5.02307e-05
 627 1.98386e-05 1.49077 0.5 5.51118e-05
 628 1.98386e-05 1.34591 0.5 4.4921e-05
 629 1.98386e-05 1.43154 0.5 5.08189e-05
 630 1.98386e-05 0.831141 0.5 1.71305e-05
 631 1.98386e-05 0.909994 0.5 2.05352e-05
 632 1.98386e-05 1.42323 0.5 5.02307e-05
 633 1.98386e-05 1.49077 0.5 5.51118e-05
 634 1.98386e-05 1.34591 0.5 4.4921e-05
 635 1.98386e-05 1.43154 0.5 5.08189e-05
 636 1.98386e-05 0.831141 0.5 1.71305e-05
 637 1.98386e-05 0.89913 0.5 2.00477e-05
 638 1.98386e-05 1.21633 0.5 3.66878e-05
 639 1.98386e-05 1.27141 0.5 4.00861e-05
 640 1.98386e-05 1.54956 0.5 5.95435e-05
 641 1.98386e-05 1.22394 0.5 3.71482e-05
 642 1.98386e-05 0.869713 0.5 1.87574e-05
 643 1.98386e-05 0.89913 0.5 2.00477e-05
 644 1.98386e-05 1.21633 0.5 3.66878e-05
 645 1.98386e-05 1.27141 0.5 4.00861e-05
 646 1.98386e-05 1.54956 0.5 5.95435e-05
 647 1.98386e-05 1.22394 0.5 3.71482e-05
 648 1.98386e-05 0.869713 0.5 1.87574e-05
 649 1.98386e-05 0.89913 0.5 2.00477e-05
 650 1.98386e-05 1.21633 0.5 3.66878e-05
 651 1.98386e-05 1.27141 0.5 4.00861e-05
 652 1.98386e-05 1.54956 0.5 5.95435e-05
 653 1.98386e-05 1.22394 0.5 3.71482e-05
 654 1.98386e-05 0.869713 0.5 1.87574e-05
 655 1.98386e-05 0.89913 0.5 2.00477e-05
 656 1.98386e-05 1.21633 0.5 3.66878e-05
 657 1.98386e-05 1.27141 0.5 4.00861e-05
 658 1.98386e-05 1.54956 0.5 5.95435e-05
 659 1.98386e-05 1.22394 0.5 3.71482e-05
 660 1.98386e-05 0.869713 0.5 1.87574e-05
 661 1.98386e-05 0.909994 0.5 2.05352e-05
 662 1.98386e-05 1.42323 0.5 5.02307e-05
 663 1.98386e-05 1.49077 0.5 5.51118e-05
 664 1.98386e-05 1.34591 0.5 4.4921e-05
 665 1.98386e-05 1.43154 0.5 5.08189e-05
 666 1.98386e-05 0.831141 0.5 1.71305e-05
 667 1.98386e-05 0.909994 0.5 2.05352e-05
 668 1.98386e-05 1.42323 0.5 5.02307e-05
 669 1.98386e-05 1.49077 0.5 5.51118e-05
 670 1.98386e-05 1.34591 0.5 4.4921e-05
 671 1.98386e-05 1.43154 0.5 5.08189e-05
 672 1.98386e-05 0.831141 0.5 1.71305e-05
 673 1.98386e-05 0.885784 0.5 1.9457e-05
 674 1.98386e-05 1.21867 0.5 3.6829e-05
 675 1.98386e-05 1.5681 0.5 6.09772e-05
 676 1.98386e-05 1.43121 0.5 5.07958e-05
 677 1.98386e-05 1.23146 0.5 3.76061e-05
 678 1.98386e-05 0.90927 0.5 2.05025e-05
 679 1.98386e-05 0.885784 0.5 1.9457e-05
 680 1.98386e-05 1.21867 0.5 3.6829e-05
 681 1.98386e-05 1.5681 0.5 6.09772e-05
 682 1.98386e-05 1.43121 0.5 5.07958e-05
 683 1.98386e-05 1.23146 0.5 3.76061e-05
 684 1.98386e-05 0.90927 0.5 2.05025e-05
 685 1.98386e-05 0.947391 0.5 2.22577e-05
 686 1.98386e-05 1.14973 0.5 3.27803e-05
 687 1.98386e-05 1.43179 0.5 5.0837e-05
 688 1.98386e-05 1.63078 0.5 6.59496e-05
 689 1.98386e-05 1.17342 0.5 3.41451e-05
 690 1.98386e-05 1.14967 0.5 3.27771e-05
 691 1.98386e-05 0.947391 0.5 2.22577e-05
 692 1.98386e-05 1.14973 0.5 3.27803e-05
 693 1.98386e-05 1.43179 0.5 5.0837e-05
 694 1.98386e-05 1.63078 0.5 6.59496e-05
 695 1.98386e-05 1.17342 0.5 3.41451e-05
 696 1.98386e-05 1.14967 0.5 3.27771e-05
 697 1.98386e-05 0.947391 0.5 2.22577e-05
 698 1.98386e-05 1.14973 0.5 3.27803e-05
 699 1.98386e-05 1.43179 0.5 5.0837e-05
 700 1.98386e-05 1.63078 0.5 6.59496e-05
 701 1.98386e-05 1.17342 0.5 3.41451e-05
 702 1.98386e-05 1.14967 0.5 3.27771e-05
 703 1.98386e-05 0.947391 0.5 2.22577e-05
 704 1.98386e-05 1.14973 0.5 3.27803e-05
 705 1.98386e-05 1.43179 0.5 5.0837e-05
 706 1.98386e-05 1.63078 0.5 6.59496e-05
 707 1.98386e-05 1.17342 0.5 3.41451e-05
 708 1.98386e-05 1.14967 0.5 3.27771e-05
 709 1.98386e-05 0.885784 0.5 1.9457e-05
 710 1.98386e-05 1.21867 0.5 3.6829e-05
 711 1.98386e-05 1.5681 0.5 6.09772e-05
 712 1.98386e-05 1.43121 0.5 5.07958e-05
 713 1.98386e-05 1.23146 0.5 3.76061e-05
 714 1.98386e-05 0.90927 0.5 2.05025e-05
 715 1.98386e-05 0.885784 0.5 1.9457e-05
 716 1.98386e-05 1.21867 0.5 3.6829e-05
 717 1.98386e-05 1.5681 0.5 6.09772e-05
 718 1.98386e-05 1.43121 0.5 5.07958e-05
 719 1.98386e-05 1.23146 0.5 3.76061e-05
 720 1.98386e-05 0.90927 0.5 2.05025e-05
 721 1.98386e-05 0.815995 0.5 1.65118e-05
 722 1.98386e-05 1.3654 0.5 4.62315e-05
 723 1.98386e-05 1.3654 0.5 4.62315e-05
 724 1.98386e-05 1.44083 0.5 5.14811e-05
 725 1.98386e-05 1.44083 0.5 5.14811e-05
 726 1.98386e-05 0.842264 0.5 1.75921e-05
 727 1.98386e-05 0.815995 0.5 1.65118e-05
 728 1.98386e-05 1.3654 0.5 4.62315e-05
 729 1.98386e-05 1.3654 0.5 4.62315e-05